 Q-Chem 4.4, Q-Chem, Inc., Pleasanton, CA (2016)
 Q-Chem 4.4.1 for Intel X86 Linux

User input:
--------------------------------------------------------------
$molecule
read                 opt.txt
$end

$rem
jobtype               opt
exchange              OmegaB97X-D
correlation           none
BASIS                 6-31++G(d,p)
incdft                false
scf_convergence       8
thresh                14
geom_opt_maxcyc       500
max_scf_cycles        5000
mem_static            4000
mem_total             42000
molden_format         false
print_general_basis   false
print_orbitals        false
solvent_method        pcm
$end

$pcm
Theory      CPCM
Method      SWIG
Solver      Inversion
HeavyPoints 194
HPoints     194
Radii       Bondi
vdwScale    1.2
$end

$solvent
Dielectric 78.4
$end
--------------------------------------------------------------

   23    -467.2452029749      5.19E-09 Convergence criterion met
 Total energy in the final basis set = -467.2452029749
   21    -467.2634393970      3.43E-09 Convergence criterion met
 Total energy in the final basis set = -467.2634393970
   20    -467.2643096676      9.90E-09 Convergence criterion met
 Total energy in the final basis set = -467.2643096676
   20    -467.2644404959      9.37E-09 Convergence criterion met
 Total energy in the final basis set = -467.2644404959
   20    -467.2645143906      8.86E-09 Convergence criterion met
 Total energy in the final basis set = -467.2645143906
   20    -467.2648325528      7.99E-09 Convergence criterion met
 Total energy in the final basis set = -467.2648325528
   20    -467.2649807795      6.61E-09 Convergence criterion met
 Total energy in the final basis set = -467.2649807795
   20    -467.2655428550      5.97E-09 Convergence criterion met
   20    -467.2697489198      7.49E-09 Convergence criterion met
 Total energy in the final basis set = -467.2697489198
   20    -467.2697663688      7.89E-09 Convergence criterion met
 Total energy in the final basis set = -467.2697663688
   20    -467.2697838757      8.24E-09 Convergence criterion met
 Total energy in the final basis set = -467.2697838757
   20    -467.2697936709      7.51E-09 Convergence criterion met
 Total energy in the final basis set = -467.2697936709
   20    -467.2697959735      6.22E-09 Convergence criterion met
 Total energy in the final basis set = -467.2697959735
   20    -467.2697972586      5.85E-09 Convergence criterion met
 Total energy in the final basis set = -467.2697972586

             Standard Nuclear Orientation (Angstroms)
    I     Atom           X                Y                Z
 ----------------------------------------------------------------
    1      N       5.6949699467     0.6847045584    -0.9917512242
    2      C       5.7288898590    -0.3989112397    -1.8408713307
    3      N       4.5092797204    -0.6921147675    -2.2946960138
    4      C       3.6754500771     0.2317125336    -1.7112596320
    5      C       2.2572245580     0.4163726597    -1.7432397565
    6      N       1.4274069702    -0.2678634610    -2.6744176750
    7      N       1.7512956424     1.5089408407    -1.0972559812
    8      C       2.5532052706     2.2720617810    -0.3710514658
    9      N       3.9066409932     2.1403605602    -0.1615614468
   10      C       4.3988414235     1.1027540039    -0.8964411882
   11      H       6.4894419928     1.1005329281    -0.5275547779
   12      H       6.6478333710    -0.9032698559    -2.0983503482
   13      H       1.6877296080    -1.2472907818    -2.7426520059
   14      H       0.4572594869    -0.2246301538    -2.3772915249
   15      H       2.0845091801     3.1117109942     0.1399666709
 ----------------------------------------------------------------

   20    -467.2697977972      5.68E-09 Convergence criterion met
 Total energy in the final basis set = -467.2697977972
 Final energy is   -467.269797797156
 **  OPTIMIZATION CONVERGED  **

                    Orbital Energies (a.u.)
 --------------------------------------------------------------

 Alpha MOs
 -- Occupied --
-14.494 -14.442 -14.433 -14.427 -14.412 -10.343 -10.337 -10.329
-10.321 -10.298  -1.111  -1.041  -0.993  -0.957  -0.924  -0.832
 -0.734  -0.706  -0.691  -0.629  -0.595  -0.565  -0.545  -0.533
 -0.509  -0.488  -0.479  -0.465  -0.420  -0.388  -0.361  -0.353
 -0.333  -0.316  -0.292  -0.136

 Beta MOs
 -- Occupied --
-14.495 -14.441 -14.433 -14.429 -14.408 -10.342 -10.334 -10.327
-10.314 -10.299  -1.109  -1.035  -0.987  -0.956  -0.921  -0.826
 -0.724  -0.704  -0.689  -0.625  -0.591  -0.563  -0.542  -0.525
 -0.506  -0.485  -0.475  -0.450  -0.402  -0.385  -0.355  -0.353
 -0.321  -0.313  -0.264

          Ground-State Mulliken Net Atomic Charges

     Atom                 Charge (a.u.)    Spin (a.u.)
  --------------------------------------------------------
      1 N                    -0.428444      -0.037190
      2 C                     0.166135       0.244099
      3 N                    -0.587793      -0.011293
      4 C                     0.019631      -0.295356
      5 C                     0.036923       0.768485
      6 N                    -0.619142       0.018046
      7 N                    -0.554015      -0.098427
      8 C                     0.065866       0.146627
      9 N                    -0.641192       0.211679
     10 C                     0.129018       0.080785
     11 H                     0.372999       0.001228
     12 H                     0.201743      -0.015505
     13 H                     0.349075      -0.004858
     14 H                     0.345211       0.004272
     15 H                     0.143985      -0.012594
  --------------------------------------------------------
  Sum of atomic charges =    -1.000000

                    Cartesian Multipole Moments
 -----------------------------------------------------------------
    Charge (ESU x 10^10)
                -4.8032
    Dipole Moment (Debye)
         X     -12.8127      Y      -5.8181      Z       7.5721
       Tot      15.9797
    Quadrupole Moments (Debye-Ang)
        XX     -86.3853     XY     -12.0132     YY     -76.5041
        XZ      21.5676     YZ       2.2113     ZZ     -85.6831

 Total job time:  914.59s(wall), 7341.51s(cpu)
        *  Thank you very much for using Q-Chem.  Have a nice day.  *
